
     Program PWSCF v.5.0.2 (svn rev. 9656) starts on 13Mar2015 at 19:29:57 

     This program is part of the open-source Quantum ESPRESSO suite
     for quantum simulation of materials; please cite
         "P. Giannozzi et al., J. Phys.:Condens. Matter 21 395502 (2009);
          URL http://www.quantum-espresso.org", 
     in publications or presentations arising from this work. More details at
     http://www.quantum-espresso.org/quote.php

     Parallel version (MPI), running on     1 processors

     Current dimensions of program PWSCF are:
     Max number of different atomic species (ntypx) = 10
     Max number of k-points (npk) =  40000
     Max angular momentum in pseudopotentials (lmaxx) =  3
     Waiting for input...
     Reading input from standard input

     Atomic positions and unit cell read from directory:
     tmp/si.save/


     Subspace diagonalization in iterative solution of the eigenvalue problem:
     a serial algorithm will be used


     G-vector sticks info
     --------------------
     sticks:   dense  smooth     PW     G-vecs:    dense   smooth      PW
     Sum         253     253     91                 2733     2733     609



     bravais-lattice index     =            2
     lattice parameter (alat)  =      10.2000  a.u.
     unit-cell volume          =     265.3020 (a.u.)^3
     number of atoms/cell      =            2
     number of atomic types    =            1
     number of electrons       =         8.00
     number of Kohn-Sham states=            8
     kinetic-energy cutoff     =      18.0000  Ry
     charge density cutoff     =      72.0000  Ry
     Exchange-correlation      =  SLA  PW   PBX  PBC ( 1 4 3 4 0)
     EXX-fraction              =        0.00

     celldm(1)=  10.200000  celldm(2)=   0.000000  celldm(3)=   0.000000
     celldm(4)=   0.000000  celldm(5)=   0.000000  celldm(6)=   0.000000

     crystal axes: (cart. coord. in units of alat)
               a(1) = (  -0.500000   0.000000   0.500000 )  
               a(2) = (   0.000000   0.500000   0.500000 )  
               a(3) = (  -0.500000   0.500000   0.000000 )  

     reciprocal axes: (cart. coord. in units 2 pi/alat)
               b(1) = ( -1.000000 -1.000000  1.000000 )  
               b(2) = (  1.000000  1.000000  1.000000 )  
               b(3) = ( -1.000000  1.000000 -1.000000 )  


     PseudoPot. # 1 for Si read from file:
     /usr/share/espresso/pseudo/Si.rel-pbe-rrkj.UPF
     MD5 check sum: ca11b4d55ae68281b492616f935c6016
     Pseudo is Norm-conserving, Zval =  4.0
     Generated by new atomic code, or converted to UPF format
     Using radial grid of 1141 points,  2 beta functions with: 
                l(1) =   0
                l(2) =   1

     atomic species   valence    mass     pseudopotential
        Si             4.00    28.08600     Si( 1.00)

     48 Sym. Ops., with inversion, found (24 have fractional translation)



   Cartesian axes

     site n.     atom                  positions (alat units)
         1           Si  tau(   1) = (   0.0000000   0.0000000   0.0000000  )
         2           Si  tau(   2) = (   0.2500000   0.2500000   0.2500000  )

     number of k points=    36
                       cart. coord. in units 2pi/alat
        k(    1) = (   0.5000000   0.5000000   0.5000000), wk =   0.0030030
        k(    2) = (   0.4000000   0.4000000   0.4000000), wk =   0.0060060
        k(    3) = (   0.3000000   0.3000000   0.3000000), wk =   0.0090090
        k(    4) = (   0.2000000   0.2000000   0.2000000), wk =   0.0120120
        k(    5) = (   0.1000000   0.1000000   0.1000000), wk =   0.0150150
        k(    6) = (   0.0000000   0.0000000   0.0000000), wk =   0.0180180
        k(    7) = (   0.0000000   0.0000000   0.1000000), wk =   0.0210210
        k(    8) = (   0.0000000   0.0000000   0.2000000), wk =   0.0240240
        k(    9) = (   0.0000000   0.0000000   0.3000000), wk =   0.0270270
        k(   10) = (   0.0000000   0.0000000   0.4000000), wk =   0.0300300
        k(   11) = (   0.0000000   0.0000000   0.5000000), wk =   0.0330330
        k(   12) = (   0.0000000   0.0000000   0.6000000), wk =   0.0360360
        k(   13) = (   0.0000000   0.0000000   0.7000000), wk =   0.0390390
        k(   14) = (   0.0000000   0.0000000   0.8000000), wk =   0.0420420
        k(   15) = (   0.0000000   0.0000000   0.9000000), wk =   0.0450450
        k(   16) = (   0.0000000   0.0000000   1.0000000), wk =   0.0480480
        k(   17) = (   0.0000000   0.1000000   1.0000000), wk =   0.0510511
        k(   18) = (   0.0000000   0.2000000   1.0000000), wk =   0.0540541
        k(   19) = (   0.0000000   0.3000000   1.0000000), wk =   0.0570571
        k(   20) = (   0.0000000   0.4000000   1.0000000), wk =   0.0600601
        k(   21) = (   0.0000000   0.5000000   1.0000000), wk =   0.0630631
        k(   22) = (   0.0000000   0.6000000   1.0000000), wk =   0.0660661
        k(   23) = (   0.0000000   0.7000000   1.0000000), wk =   0.0690691
        k(   24) = (   0.0000000   0.8000000   1.0000000), wk =   0.0720721
        k(   25) = (   0.0000000   0.9000000   1.0000000), wk =   0.0750751
        k(   26) = (   0.0000000   1.0000000   1.0000000), wk =   0.0780781
        k(   27) = (   0.0000000   0.9000000   0.9000000), wk =   0.0810811
        k(   28) = (   0.0000000   0.8000000   0.8000000), wk =   0.0840841
        k(   29) = (   0.0000000   0.7000000   0.7000000), wk =   0.0870871
        k(   30) = (   0.0000000   0.6000000   0.6000000), wk =   0.0900901
        k(   31) = (   0.0000000   0.5000000   0.5000000), wk =   0.0930931
        k(   32) = (   0.0000000   0.4000000   0.4000000), wk =   0.0960961
        k(   33) = (   0.0000000   0.3000000   0.3000000), wk =   0.0990991
        k(   34) = (   0.0000000   0.2000000   0.2000000), wk =   0.1021021
        k(   35) = (   0.0000000   0.1000000   0.1000000), wk =   0.1051051
        k(   36) = (   0.0000000   0.0000000   0.0000000), wk =   0.1081081

     Dense  grid:     2733 G-vectors     FFT dimensions: (  20,  20,  20)

     Largest allocated arrays     est. size (Mb)     dimensions
        Kohn-Sham Wavefunctions         0.04 Mb     (    360,    8)
        NL pseudopotentials             0.04 Mb     (    360,    8)
        Each V/rho on FFT grid          0.12 Mb     (   8000)
        Each G-vector array             0.02 Mb     (   2733)
        G-vector shells                 0.00 Mb     (     65)
     Largest temporary arrays     est. size (Mb)     dimensions
        Auxiliary wavefunctions         0.18 Mb     (    360,   32)
        Each subspace H/S matrix        0.02 Mb     (  32,  32)
        Each <psi_i|beta_j> matrix      0.00 Mb     (      8,    8)

     The potential is recalculated from file :
     tmp/si.save/charge-density.dat

     Starting wfc are    8 randomized atomic wfcs

     total cpu time spent up to now is        0.1 secs

     per-process dynamical memory:     4.8 Mb

     Band Structure Calculation
     Davidson diagonalization with overlap

     ethr =  1.25E-08,  avg # of iterations = 12.3

     total cpu time spent up to now is        0.9 secs

     End of band structure calculation

          k = 0.5000 0.5000 0.5000     band energies (ev):

    -3.2834  -0.6230   5.2198   5.2198   8.0133   9.7777   9.7777  14.1918

          k = 0.4000 0.4000 0.4000     band energies (ev):

    -3.7477   0.0886   5.2930   5.2930   8.0977   9.8590   9.8590  14.3116

          k = 0.3000 0.3000 0.3000     band energies (ev):

    -4.5109   1.5888   5.5079   5.5079   8.3375   9.9867   9.9867  14.0770

          k = 0.2000 0.2000 0.2000     band energies (ev):

    -5.1372   3.4027   5.8468   5.8468   8.7008   9.8245   9.8245  12.5840

          k = 0.1000 0.1000 0.1000     band energies (ev):

    -5.5307   5.2845   6.2333   6.2333   9.0442   9.3104   9.3104  10.8272

          k = 0.0000 0.0000 0.0000     band energies (ev):

    -5.6635   6.4359   6.4359   6.4359   9.0129   9.0129   9.0129   9.9263

          k = 0.0000 0.0000 0.1000     band energies (ev):

    -5.6193   6.1602   6.2556   6.2556   8.9049   9.2470   9.2470  10.1909

          k = 0.0000 0.0000 0.2000     band energies (ev):

    -5.4860   5.5073   5.8467   5.8467   8.6265   9.8195   9.8195  10.7351

          k = 0.0000 0.0000 0.3000     band energies (ev):

    -5.2647   4.6942   5.3757   5.3757   8.2620  10.5598  10.5598  10.9197

          k = 0.0000 0.0000 0.4000     band energies (ev):

    -4.9567   3.8151   4.9192   4.9192   7.8885  10.3459  11.3825  11.3825

          k = 0.0000 0.0000 0.5000     band energies (ev):

    -4.5634   2.9140   4.5113   4.5113   7.5513   9.5666  12.2590  12.2590

          k = 0.0000 0.0000 0.6000     band energies (ev):

    -4.0870   2.0058   4.1668   4.1668   7.2781   8.8336  13.1683  13.1683

          k = 0.0000 0.0000 0.7000     band energies (ev):

    -3.5323   1.1021   3.8927   3.8927   7.0872   8.2118  14.1001  14.1001

          k = 0.0000 0.0000 0.8000     band energies (ev):

    -2.9039   0.2181   3.6956   3.6956   6.9883   7.7163  15.0532  15.0532

          k = 0.0000 0.0000 0.9000     band energies (ev):

    -2.2068  -0.6368   3.5752   3.5752   6.9932   7.3520  16.0077  16.0077

          k = 0.0000 0.0000 1.0000     band energies (ev):

    -1.4482  -1.4482   3.5351   3.5351   7.1127   7.1127  16.6939  16.6939

          k = 0.0000 0.1000 1.0000     band energies (ev):

    -1.4331  -1.4331   3.4067   3.4067   7.3525   7.3525  16.2180  16.2180

          k = 0.0000 0.2000 1.0000     band energies (ev):

    -1.3924  -1.3924   3.1138   3.1138   7.9819   7.9819  15.0246  15.0246

          k = 0.0000 0.3000 1.0000     band energies (ev):

    -1.3396  -1.3396   2.8068   2.8068   8.8577   8.8577  13.7035  13.7035

          k = 0.0000 0.4000 1.0000     band energies (ev):

    -1.2942  -1.2942   2.5863   2.5863   9.8771   9.8771  12.4188  12.4188

          k = 0.0000 0.5000 1.0000     band energies (ev):

    -1.2768  -1.2768   2.5055   2.5055  10.7119  10.7119  11.4910  11.4910

          k = 0.0000 0.6000 1.0000     band energies (ev):

    -1.2942  -1.2942   2.5863   2.5863   9.8771   9.8771  12.4188  12.4188

          k = 0.0000 0.7000 1.0000     band energies (ev):

    -1.3396  -1.3396   2.8068   2.8068   8.8577   8.8577  13.7035  13.7035

          k = 0.0000 0.8000 1.0000     band energies (ev):

    -1.3924  -1.3924   3.1138   3.1138   7.9819   7.9819  15.0246  15.0246

          k = 0.0000 0.9000 1.0000     band energies (ev):

    -1.4331  -1.4331   3.4067   3.4067   7.3525   7.3525  16.2180  16.2180

          k = 0.0000 1.0000 1.0000     band energies (ev):

    -1.4482  -1.4482   3.5351   3.5351   7.1127   7.1127  16.6939  16.6939

          k = 0.0000 0.9000 0.9000     band energies (ev):

    -1.4881  -1.3524   3.0404   3.6063   7.1947   7.9024  15.9173  16.2258

          k = 0.0000 0.8000 0.8000     band energies (ev):

    -1.6722  -1.0652   2.2923   3.8163   7.4386   9.5953  14.6324  15.1921

          k = 0.0000 0.7000 0.7000     band energies (ev):

    -2.1247  -0.5896   1.9376   4.1516   7.8285  11.6102  13.3745  13.9214

          k = 0.0000 0.6000 0.6000     band energies (ev):

    -2.8166   0.0738   2.0904   4.5903   8.3373  12.2448  12.5261  13.3715

          k = 0.0000 0.5000 0.5000     band energies (ev):

    -3.5822   0.9159   2.6142   5.0878   8.8951  11.2698  11.6118  12.6530

          k = 0.0000 0.4000 0.4000     band energies (ev):

    -4.2907   1.9314   3.3800   5.5803   9.3593  10.4627  10.7867  12.2362

          k = 0.0000 0.3000 0.3000     band energies (ev):

    -4.8769   3.1036   4.2936   5.9871   9.5440   9.8320  10.1083  12.1470

          k = 0.0000 0.2000 0.2000     band energies (ev):

    -5.3102   4.3986   5.2513   6.2581   9.3780   9.4682   9.5746  11.7241

          k = 0.0000 0.1000 0.1000     band energies (ev):

    -5.5748   5.6975   6.0759   6.3961   9.1043   9.1818   9.2708  10.5271

          k = 0.0000 0.0000 0.0000     band energies (ev):

    -5.6635   6.4359   6.4359   6.4359   9.0129   9.0129   9.0129   9.9263

     Writing output data file si.save

     init_run     :      0.08s CPU      0.08s WALL (       1 calls)
     electrons    :      0.76s CPU      0.80s WALL (       1 calls)

     Called by init_run:
     wfcinit      :      0.00s CPU      0.00s WALL (       1 calls)
     potinit      :      0.00s CPU      0.01s WALL (       1 calls)

     Called by electrons:
     c_bands      :      0.76s CPU      0.80s WALL (       1 calls)
     v_of_rho     :      0.00s CPU      0.01s WALL (       1 calls)

     Called by c_bands:
     init_us_2    :      0.00s CPU      0.00s WALL (      36 calls)
     cegterg      :      0.69s CPU      0.72s WALL (      36 calls)

     Called by *egterg:
     h_psi        :      0.44s CPU      0.45s WALL (     516 calls)
     g_psi        :      0.01s CPU      0.01s WALL (     444 calls)
     cdiaghg      :      0.11s CPU      0.11s WALL (     480 calls)

     Called by h_psi:
     add_vuspsi   :      0.02s CPU      0.02s WALL (     516 calls)

     General routines
     calbec       :      0.02s CPU      0.02s WALL (     516 calls)
     fft          :      0.00s CPU      0.00s WALL (      10 calls)
     fftw         :      0.32s CPU      0.32s WALL (    5682 calls)
     davcio       :      0.00s CPU      0.00s WALL (      36 calls)

     Parallel routines
     fft_scatter  :      0.02s CPU      0.03s WALL (    5692 calls)

     PWSCF        :     1.01s CPU         1.05s WALL


   This run was terminated on:  19:29:58  13Mar2015            

=------------------------------------------------------------------------------=
   JOB DONE.
=------------------------------------------------------------------------------=
